! Touchstone file exported from Circuit Design 2022.2.0
!        File:           C:/Users/HFSS/Documents/Ansoft/Project15.aedt
!        Generated:      4:42:51
!        Design:         Circuit1
!        Project:        Project15
!        Setup:          LinearFrequency
!        Solution:       LinearFrequency
!
# GHz S MA R 50.000000
! Terminal data exported
! Port[1] = Port1
! Port[2] = Port2
! Port[3] = Port3
! Port[4] = Port4
0                              0.014865875271188 -0               0.983264937451046 -0               0.000507409798865213 -0               0.000411139090159697 -180             
                               0.982092941610736 -0               0.0172012548923387 -0               0.000417622136755297 -0               0.000494902868706938 -180             
                               0.000505982061068827 -180             0.000420854500593506 -0               0.0161842529645679 -180             0.983523839999232 -0               
                               0.000425059423550099 -0               0.000512903771025554 -0               0.983468561215064 -0               0.0178994064241289 -180             
! Gamma         0                0                0                0                0                0                0                0                
! Port Impedance         50               0                50               0                50               0                50               0                
0.0145                         0.0321723100533284 52.3910900535703 0.982050902620007 -1.76215497016997 0.0240583430561527 85.936150117778  0.0208733813110567 -94.4450043437513 
                               0.982038503833381 -1.733745227132  0.0319457765864731 54.0352244416086 0.0208710354709865 -94.9128502259872 0.0239733072988264 85.921508637157  
                               0.024005880058122 85.8775949993308 0.0208509522987677 -94.7022813322782 0.0304518946856359 54.4882614691234 0.982896803167776 -1.63259946809827 
                               0.0208171859123143 -94.6529413193703 0.0240562318907234 86.0105425450467 0.982736885026362 -1.68127579237517 0.0303338615821212 52.6168476065637 
! Gamma         0                0                0                0                0                0                0                0                
! Port Impedance         50               0                50               0                50               0                50               0                
0.029                          0.056399000007019 65.272900999915  0.978275872374939 -3.39940722216211 0.0472167909880752 82.7536223826753 0.0410210029160432 -98.2439859021922 
                               0.978542251440082 -3.4058485497005 0.0566140808444802 65.2364801181738 0.0408647354303414 -98.2663295807518 0.0473029130894449 82.7834251536986 
                               0.0471802389717485 82.7690754939203 0.0407691234212405 -98.2155719165642 0.0545221720288576 64.7810842547629 0.978725676956741 -3.27192793645231 
                               0.0409019129270363 -98.2571810768468 0.0473578685193186 82.830138176988  0.978705175792622 -3.21807230092431 0.0546748605670967 65.2621786645783 
! Gamma         0                0                0                0                0                0                0                0                
! Port Impedance         50               0                50               0                50               0                50               0                
0.0435                         0.0817753835464611 67.8002745592301 0.973422580186416 -5.01800994264676 0.0699545789666066 79.9559349243909 0.0603997585808573 -101.477716816852 
                               0.974402522991419 -5.03474880917753 0.0796013769784463 68.0408403336199 0.0605401802101795 -101.27874278649 0.0700175207660075 80.132885108957  
                               0.0697200141207571 79.9237095144215 0.0604001735249127 -101.226897151619 0.078257749990916 68.4601506410907 0.974522689860007 -4.81050574407324 
                               0.0604252282895141 -101.503126607741 0.0699576704523781 80.1613728246477 0.974907745576576 -4.80508931547585 0.0765939734442163 66.8207588011664 
! Gamma         0                0                0                0                0                0                0                0                
! Port Impedance         50               0                50               0                50               0                50               0                
0.058                          0.107083988272811 68.1096806573505 0.967860114577981 -6.59162845787935 0.0919850486270007 77.0591631285424 0.0794995077123656 -104.846672413002 
                               0.967578472114537 -6.62282449707664 0.106033617527951 68.6125287919586 0.0795394596292879 -104.709433560786 0.0920012685760982 77.0536310676082 
                               0.091819419102797 77.1202982675426 0.0794787756965077 -104.674693672286 0.101160614480326 68.5214570984392 0.968329479686753 -6.32504078072408 
                               0.0794585958246944 -104.925519432143 0.0920006489224473 77.0462639805282 0.968660396636387 -6.31522478734487 0.103352013062392 68.6874018415954 
! Gamma         0                0                0                0                0                0                0                0                
! Port Impedance         50               0                50               0                50               0                50               0                
0.0725                         0.129488129680784 67.9971140134833 0.959802134866921 -8.10743865673312 0.113357305148236 74.4940151509937 0.0980254415735504 -107.727306936421 
                               0.960051915034914 -8.13042919937612 0.130213315825929 67.8560320794554 0.09822089760316 -107.664281058159 0.113474338461751 74.5133261582496 
                               0.113212559395886 74.540921096991  0.0979377147954766 -107.725688280042 0.123366454814377 67.9885797393188 0.961371195352563 -7.75254756937819 
                               0.0981016981782705 -107.829789875476 0.113483322516147 74.4949805266054 0.960885107719359 -7.75076879638248 0.123813033373789 67.6622554798509 
! Gamma         0                0                0                0                0                0                0                0                
! Port Impedance         50               0                50               0                50               0                50               0                
0.087                          0.153384162363145 65.8124407564    0.95173278526591 -9.63057128607605 0.133477375677185 71.7655569895255 0.11533737790067 -110.855851015   
                               0.951345988450591 -9.57681745519066 0.153230255090164 66.3107154860348 0.115664570491637 -110.790395102367 0.133643462216646 71.8276848035648 
                               0.13334051647517 71.8115166813333 0.115615643376162 -110.821499716778 0.145968303624735 66.1283894723375 0.953455845601526 -9.23686194686757 
                               0.115386567210067 -110.89823879107 0.133816738108883 71.8641069496979 0.952074944488504 -9.19337111279066 0.145562117133928 65.5404700565334 
! Gamma         0                0                0                0                0                0                0                0                
! Port Impedance         50               0                50               0                50               0                50               0                
0.1015                         0.175772680678581 64.4021633128067 0.941766262332833 -11.0376498649586 0.153108080385814 69.1570647359514 0.132249865922887 -113.999615747687 
                               0.940844229518641 -11.0821959782857 0.174367315422856 64.404212858373  0.132663007120905 -113.773206570686 0.153156941741496 69.2185809701139 
                               0.153351919748023 69.2308890702199 0.132457498852008 -113.783840017577 0.165611580582168 64.7925975641626 0.944196200734552 -10.6112984635752 
                               0.132261693682256 -114.025263312475 0.153276636148835 69.1954777831756 0.943745293253373 -10.5915420732674 0.167144874417806 63.8290046468641 
! Gamma         0                0                0                0                0                0                0                0                
! Port Impedance         50               0                50               0                50               0                50               0                
0.116                          0.195555123475983 62.5165730841471 0.931320859176011 -12.373585931944 0.172056212364988 66.8571946371534 0.148403427482883 -116.669392773643 
                               0.931647464136397 -12.3527824568466 0.194703596366981 62.8910251362636 0.148680530308283 -116.54349488929 0.171964717189525 66.894330521557  
                               0.171734951813418 66.8388858891546 0.148663891230723 -116.552705421351 0.186556609956547 62.9103329578512 0.933559696885623 -11.8383968348931 
                               0.148398441648729 -116.756700806294 0.172107828279107 66.9028928776952 0.933978759106783 -11.7981966591754 0.185925253512374 62.3196113204243 
! Gamma         0                0                0                0                0                0                0                0                
! Port Impedance         50               0                50               0                50               0                50               0                
0.1305                         0.216252483526012 60.8620086577525 0.919555733863515 -13.6703704914204 0.189359404428965 64.3643271132699 0.163394047908355 -119.705139607018 
                               0.920308670787553 -13.654791439116 0.216278403593337 61.1401351328237 0.163655373291984 -119.530202455424 0.189385235165366 64.3495374877782 
                               0.189344531962604 64.3559186163794 0.163616764022654 -119.529468768738 0.20625138842539 61.0023545456189 0.922104300527559 -13.0156408057215 
                               0.163462647400685 -119.696486849119 0.18935513748129 64.361627604672  0.922257790005869 -13.0821030915082 0.206433032705506 60.4413793916884 
! Gamma         0                0                0                0                0                0                0                0                
! Port Impedance         50               0                50               0                50               0                50               0                
0.145                          0.235434499702315 58.794017465825  0.909481201013763 -14.8326726925174 0.206234557016113 62.1337077387143 0.178009329127806 -122.334336967107 
                               0.908664360644233 -14.9179835195702 0.2350590139183  59.1711272177388 0.178507887501983 -122.143324834382 0.206338240578107 62.1501891411746 
                               0.20624608716727 62.1129135265567 0.178224203388895 -122.165429519417 0.223424184711226 59.3774628341562 0.91207445459311 -14.2108344452691 
                               0.177950077148024 -122.39243432648 0.206372636567638 62.1023928417455 0.911837130324562 -14.2344898687296 0.224304116546965 58.6679821540842 
! Gamma         0                0                0                0                0                0                0                0                
! Port Impedance         50               0                50               0                50               0                50               0                
0.1595                         0.252326824632949 57.3485096315355 0.896070916126792 -15.9919256792984 0.221795546592656 59.9463706224164 0.191575850646163 -124.942245014011 
                               0.896042189161285 -16.0231248339141 0.253605568041358 57.0473842051699 0.191585105046245 -124.712417211014 0.221831841719893 59.9012713951391 
                               0.222107266747561 59.9267523210554 0.191662054381062 -124.729169405053 0.239086389330962 57.6146954768445 0.900481939790414 -15.3199549625585 
                               0.191833627097114 -124.980662004559 0.221832008923007 59.8702265680703 0.899920269322747 -15.3166196956919 0.241074549110362 57.15584212195   
! Gamma         0                0                0                0                0                0                0                0                
! Port Impedance         50               0                50               0                50               0                50               0                
0.174                          0.269996546262768 55.4012544197991 0.88423133509699 -17.109321475869 0.236468568097061 57.7305747512539 0.204428195671328 -127.676286310172 
                               0.884073483864315 -17.0766033183836 0.270188799993916 55.7454886117944 0.204731109894728 -127.363469607733 0.236832616782728 57.714115105125  
                               0.236428083839134 57.7414113449765 0.204481264004837 -127.397620748072 0.256179699371746 55.6171386837915 0.888514369232604 -16.3421261552496 
                               0.204471458180273 -127.655382424022 0.23727737125435 57.6867675217794 0.888492384643902 -16.3236836347657 0.25783332001013 55.4940324589495 
! Gamma         0                0                0                0                0                0                0                0                
! Port Impedance         50               0                50               0                50               0                50               0                
0.1885                         0.287314009408712 53.8071733090689 0.871996712964696 -18.1247168496579 0.25055208981423 55.6887932678083 0.216439959014335 -130.230122402721 
                               0.872755943452528 -18.1602439350203 0.286727523653992 53.8116750089937 0.216670168188975 -129.78122962176 0.250702897561964 55.6157220035163 
                               0.250407401331083 55.6239861606845 0.216139048833339 -129.861873290214 0.270951037965914 53.9439089584903 0.876512092094762 -17.3593690397363 
                               0.216506365040752 -130.241615306648 0.250525336472643 55.5606445570564 0.877097824144823 -17.3064811733811 0.273537095215362 53.7436068010578 
! Gamma         0                0                0                0                0                0                0                0                
! Port Impedance         50               0                50               0                50               0                50               0                
0.203                          0.301499170085164 52.1905353620472 0.859932418071238 -19.0497616100921 0.263150341466   53.6912429410146 0.227103776394721 -132.424430073964 
                               0.859637543012089 -19.0650665777199 0.301437398623116 52.2563530900223 0.227491345487167 -132.233005849241 0.262963251393436 53.824595600682  
                               0.262916949842364 53.7189561650792 0.227038981583387 -132.265992664663 0.28644651968529 52.2342634432282 0.865276682201109 -18.1229410128344 
                               0.227146146055368 -132.426092202862 0.263057366214034 53.8046026196146 0.864447911686701 -18.1744369766645 0.285728540317391 51.791256353512  
! Gamma         0                0                0                0                0                0                0                0                
! Port Impedance         50               0                50               0                50               0                50               0                
0.2175                         0.313984033409193 50.3930763912175 0.848365755505794 -19.9457249886676 0.275674803334322 52.0173317305651 0.237613628211235 -134.562387715565 
                               0.848573878085647 -19.9296694177933 0.314863476495994 50.5791182809878 0.23822733532393 -134.367392404103 0.275423772617651 52.0464314952523 
                               0.275355854125378 52.0133925586339 0.237869526726875 -134.356509709262 0.298830656229331 50.7927083012439 0.853530524019532 -19.0088554953515 
                               0.237740441051349 -134.564412460629 0.275349200474489 52.0353807491768 0.853682895185495 -19.0072861184719 0.298878751563032 50.124600463418  
! Gamma         0                0                0                0                0                0                0                0                
! Port Impedance         50               0                50               0                50               0                50               0                
0.232                          0.326385405832363 48.7276361391335 0.836836049467563 -20.786099195835 0.286985189174628 50.2272994039902 0.24719663311912 -136.823299831892 
                               0.836206557078694 -20.7996668994353 0.328528004236098 49.1812195393292 0.248304437671184 -136.658199194434 0.286737770992862 50.1107067428395 
                               0.286553489164807 50.2030676885189 0.247685182874892 -136.661731935989 0.311248898581394 49.2552333816788 0.841397783050384 -19.8755929613156 
                               0.247363477677226 -136.814115084988 0.286477706248604 50.0734262718864 0.842597953948936 -19.8853402009241 0.312384095747258 48.6719039202503 
! Gamma         0                0                0                0                0                0                0                0                
! Port Impedance         50               0                50               0                50               0                50               0                
0.2465                         0.339686859270054 47.3632426078999 0.824887746349648 -21.5761984048399 0.297262516771039 48.5846590473081 0.25656454275857 -138.889382506359 
                               0.824578326929527 -21.568115343871 0.338813053892972 47.4932735810271 0.256864176701988 -138.478025040568 0.297446954913307 48.6206798912121 
                               0.297259526384367 48.5791646810981 0.256609022082624 -138.481228153101 0.322182978731055 47.6081354744691 0.831579679887116 -20.5828427005026 
                               0.256428874336495 -138.944374725349 0.29712672527856 48.658178481452  0.831681656178946 -20.5740040778571 0.323416254929089 47.2946847866093 
! Gamma         0                0                0                0                0                0                0                0                
! Port Impedance         50               0                50               0                50               0                50               0                
0.261                          0.350591431595339 45.929737287192  0.814512466500873 -22.2563325741413 0.30738292300141 46.9639949422497 0.265363390454062 -140.853178061142 
                               0.813282538573811 -22.2634365695394 0.351408395927277 45.9464665057779 0.265202981215359 -140.675901752139 0.306853453245008 46.9937714897235 
                               0.307194444137055 46.904554975366  0.264678190779938 -140.643854427731 0.333561109990502 46.1827531331091 0.820296299317035 -21.3289551378456 
                               0.265302357181517 -140.967186294125 0.306825242672302 46.9478070630936 0.819260484380979 -21.3299976045927 0.332896193023923 45.9475905321543 
! Gamma         0                0                0                0                0                0                0                0                
! Port Impedance         50               0                50               0                50               0                50               0                
0.2755                         0.361987290614652 44.5557395563289 0.802136313239757 -22.9698819833881 0.316108055490429 45.4922314904403 0.272779671093822 -142.906393522291 
                               0.801921505241873 -22.9541376394626 0.361081043763805 44.7899190376041 0.272793371477604 -142.438235258159 0.316120130223226 45.4658915149262 
                               0.315863389636293 45.4894302871921 0.27285629583309 -142.417274093452 0.342955587583676 44.879897740549  0.809501026952139 -21.8909683891851 
                               0.27261491987932 -142.905382055353 0.315723851597629 45.489157021185  0.81072825345645 -21.8892157301049 0.344558261828078 44.3961203169661 
! Gamma         0                0                0                0                0                0                0                0                
! Port Impedance         50               0                50               0                50               0                50               0                
0.29                           0.372340855244524 43.4184768089905 0.791356778148267 -23.6539888551285 0.325036842892506 43.9356507704684 0.280551195447526 -144.719239017836 
                               0.791334087579604 -23.688551335915 0.370171336285727 43.3990614626582 0.280318386825981 -144.285091683214 0.325097941594014 44.0149852651904 
                               0.324891338177236 43.9633515732841 0.280314057692339 -144.285594661734 0.351816065831569 43.5747125769368 0.799652943323764 -22.5160616756179 
                               0.28088691563496 -144.812998389971 0.324448050978917 44.0669702469904 0.799542370760043 -22.5418919318244 0.352931516461583 43.0144056323957 
! Gamma         0                0                0                0                0                0                0                0                
! Port Impedance         50               0                50               0                50               0                50               0                
0.3045                         0.380335289461152 41.8881964834962 0.781910627239244 -24.2329198707637 0.332634424621092 42.6510335532434 0.287650942324274 -146.333081684187 
                               0.782314288364533 -24.2703506311072 0.381207574415327 42.1027417683324 0.287202847154898 -146.172746969226 0.333172525543646 42.7373542594734 
                               0.332629284305469 42.6421902032311 0.286552968103374 -146.177830016182 0.362473533358849 42.2384683139396 0.790968704445305 -23.0986577858651 
                               0.287780737054437 -146.374164994737 0.33277500799066 42.7364538333444 0.790126593089555 -23.1293263621925 0.361223604324899 41.916754102442  
! Gamma         0                0                0                0                0                0                0                0                
! Port Impedance         50               0                50               0                50               0                50               0                
0.319                          0.390741169438455 40.8419196418888 0.770909605027242 -24.8056314790395 0.339804591958788 41.2552004998578 0.293645483080551 -148.303488024961 
                               0.771238432251912 -24.8228713364842 0.389409140503737 41.1038086878476 0.293804711531074 -147.806578354597 0.339866975959819 41.3673817992475 
                               0.339967826186792 41.2572779941953 0.293257468926926 -147.88265065359 0.369594135794061 41.0660086472446 0.780546964005894 -23.576863572052 
                               0.293741648223419 -148.339776022527 0.340183216769799 41.321376431657  0.780173173708548 -23.5858037358608 0.369860904998709 40.7145472652006 
! Gamma         0                0                0                0                0                0                0                0                
! Port Impedance         50               0                50               0                50               0                50               0                
0.3335                         0.397384072232399 39.5292413706646 0.761826136306829 -25.4676973290026 0.347514372527271 39.9956267673985 0.299976807131478 -149.915269340165 
                               0.761837039081928 -25.4367353450957 0.397959286432455 39.9082875583481 0.300249311846929 -149.472074379402 0.34779389277102 40.0887913924627 
                               0.347679965200947 40.0403262724581 0.299774235573538 -149.58108532962 0.377226157443024 39.9230035190257 0.771810239635287 -24.1669043137077 
                               0.300256310088406 -149.840920825631 0.347496969593345 40.0609802969652 0.772154764812178 -24.1757527348087 0.376878029995599 39.4094528733424 
! Gamma         0                0                0                0                0                0                0                0                
! Port Impedance         50               0                50               0                50               0                50               0                
0.348                          0.40429631353023 38.6025706838372 0.752033234312408 -25.8640149060519 0.353686960695268 38.8216923790584 0.305626783793137 -151.522565961994 
                               0.751519568987936 -25.8813861389245 0.405995756226729 38.7376475676061 0.305026944171529 -151.195611976948 0.353301739744999 38.8632598261299 
                               0.353576614747873 38.7419500467222 0.30474034584668 -151.230753743405 0.384890103401182 38.9246840619014 0.761768010045455 -24.6314381737857 
                               0.305644319327883 -151.528542126509 0.353062566462426 38.828738654825  0.761963581884831 -24.6202881204428 0.383966596959966 38.548407931673  
! Gamma         0                0                0                0                0                0                0                0                
! Port Impedance         50               0                50               0                50               0                50               0                
0.3625                         0.412732853098768 37.4138614965871 0.743308031090732 -26.3465213987989 0.359874650240742 37.5861971293906 0.311093884448249 -153.270140497273 
                               0.743094850776781 -26.3360514260746 0.412238186151097 37.8072081364332 0.311410949864111 -152.660070240978 0.360014769679081 37.6606624819905 
                               0.360023513250034 37.6056908428708 0.310853092049658 -152.689255055808 0.390800182917191 37.9682876501982 0.753374233019418 -25.0556728314967 
                               0.310823694060671 -153.302402436828 0.359536977144319 37.618663853095  0.753600348403512 -25.1007217155525 0.391881102301969 37.5404888649745 
! Gamma         0                0                0                0                0                0                0                0                
! Port Impedance         50               0                50               0                50               0                50               0                
0.377                          0.418560993336347 36.3710000526538 0.734492399973139 -26.7246331807985 0.365223934281925 36.4866287735515 0.315404513260257 -154.614099761795 
                               0.734578190335141 -26.8058828849931 0.41948093460385 36.9997650034217 0.316000163971755 -154.341863911318 0.365685029887387 36.5923289350223 
                               0.365003476148229 36.4361583395721 0.315178126858067 -154.303044654363 0.398661727550323 36.7687385288294 0.745079060968099 -25.499756400137 
                               0.315770893457292 -154.614186975517 0.364895510109282 36.6472120323535 0.744958573185268 -25.470070321884 0.397097656703884 36.4199598425923 
! Gamma         0                0                0                0                0                0                0                0                
! Port Impedance         50               0                50               0                50               0                50               0                
0.3915                         0.424851619550098 35.4190852833333 0.725850845000719 -27.2191423789942 0.370698026535972 35.5137879108031 0.320462955917793 -156.190739227088 
                               0.725908084096414 -27.2365107125245 0.425543084172889 35.9245935546286 0.320453876542236 -155.668322307441 0.371091128403181 35.474850016466  
                               0.370244270511444 35.4537572060858 0.319992166737223 -155.711573830612 0.403612777873686 35.8006185955354 0.737169018803388 -25.9094946045253 
                               0.320791071656533 -156.083658913461 0.37070586365795 35.4958271586681 0.737908160591439 -25.8907341209499 0.403417160308935 35.4986200623047 
! Gamma         0                0                0                0                0                0                0                0                
! Port Impedance         50               0                50               0                50               0                50               0                
0.406                          0.431394879503147 34.5644354450002 0.717738052343137 -27.613956496951 0.376195932598069 34.4148341142876 0.32543343830628 -157.504320371076 
                               0.717558323371384 -27.6788451109887 0.431305304124812 34.8580478628938 0.324992612890006 -157.058927563593 0.376203958961772 34.5648158290775 
                               0.376225909052159 34.4031923903225 0.3248375548193  -157.069676522125 0.408178521279012 35.0635650633307 0.730308326134578 -26.2957133744907 
                               0.325363231827525 -157.49277131823 0.37623041483057 34.5521534932518 0.730266346129859 -26.3001286989973 0.407934556841883 34.5192430324783 
! Gamma         0                0                0                0                0                0                0                0                
! Port Impedance         50               0                50               0                50               0                50               0                
0.4205                         0.436375221370438 33.5869236009766 0.710629096043444 -28.0678315923062 0.380867191228855 33.3884445903346 0.329580544544234 -158.971598207736 