! Touchstone file exported from Ansys Full-Wave Spice
!   Setup: _REORDER
! Creation time: Tue Aug 13 15:29:55 2024
! Notes: Frequency range: 0 to 2e+10 Hz, 100 points
!      : Maximum number of poles: 10000
!      : S-Matrix fitting error tolerance: 0.005
!      : Causality check tolerance: 0.01
!      : Passivity enforcement: off
!      : Causality enforcement: off
!      : Fitting method: FastFit
!      : Matrix fitting: By entire matrix (required by FastFit)
!      : Ensure Z-parameter accuracy: on
!      : Relative error control: off
!      : Common ground option: on
!      : Final fitting error: 0.00405851
!      : Final model order: 368
# GHZ S MA R 50
! Modal data exported
! Port[1] = Port1
! Port[2] = Port2
! Port[3] = U2A5.AM2.PCIE0_RX0_P
! Port[4] = U2A5.AN1.PCIE0_RX0_N

0.000000000000000e+00 2.130422288942890e-03 0.000000000000000e+00 1.971976057739480e-04 0.000000000000000e+00 9.978695397502049e-01 0.000000000000000e+00 1.971976867631564e-04 1.800000000000000e+02 
                      1.971976057739480e-04 0.000000000000000e+00 2.127547379382588e-03 0.000000000000000e+00 1.971976941287784e-04 1.800000000000000e+02 9.978724526982050e-01 0.000000000000000e+00 
                      9.978695397502049e-01 0.000000000000000e+00 1.971976941287784e-04 1.800000000000000e+02 2.130422290164857e-03 0.000000000000000e+00 1.971975988823982e-04 0.000000000000000e+00 
                      1.971976867631564e-04 1.800000000000000e+02 9.978724526982050e-01 0.000000000000000e+00 1.971975988823982e-04 0.000000000000000e+00 2.127547223795156e-03 0.000000000000000e+00 

2.020202020202020e-01 3.998413700148751e-02 -8.527778680849460e+01 4.854708776812880e-02 5.857439107637278e+01 9.800224267057098e-01 -2.873777839589637e+01 1.124767706310139e-02 -1.162617471507601e+02 
                      4.854708776812880e-02 5.857439107637278e+01 3.983148955867514e-02 -8.512885869842293e+01 1.124298702196370e-02 -1.163165329815486e+02 9.800535094800271e-01 -2.871617156935335e+01 
                      9.800224267057098e-01 -2.873777839589637e+01 1.124298702196370e-02 -1.163165329815486e+02 3.179391537582271e-02 -1.255725080175915e+02 4.901099399987239e-02 6.169723436484549e+01 
                      1.124767706310139e-02 -1.162617471507601e+02 9.800535094800271e-01 -2.871617156935335e+01 4.901099399987239e-02 6.169723436484549e+01 3.194936667656383e-02 -1.251031380613148e+02 

4.040404040404040e-01 7.845477052630476e-02 -1.010436246057643e+02 8.491943893181973e-02 3.034334549899853e+01 9.655103509092301e-01 -5.668583662269681e+01 2.315076152161918e-02 -1.406939515180501e+02 
                      8.491943893181973e-02 3.034334549899853e+01 7.838352604987538e-02 -1.008019803653017e+02 2.313774033038826e-02 -1.407743995054562e+02 9.655464186597025e-01 -5.664558101118762e+01 
                      9.655103509092301e-01 -5.668583662269681e+01 2.313774033038826e-02 -1.407743995054562e+02 6.199425731307640e-02 -1.780284320485698e+02 8.736920804314247e-02 3.596127574891388e+01 
                      2.315076152161918e-02 -1.406939515180501e+02 9.655464186597025e-01 -5.664558101118762e+01 8.736920804314247e-02 3.596127574891388e+01 6.147208642692194e-02 -1.790447407928044e+02 

6.060606060606061e-01 1.104957827071979e-01 -1.125991035836797e+02 1.032112973545648e-01 2.711854766576701e+00 9.518209139117305e-01 -8.425443140918544e+01 3.857357441477114e-02 -1.690985746337856e+02 
                      1.032112973545648e-01 2.711854766576701e+00 1.105068812035031e-01 -1.123418207155555e+02 3.854491500056496e-02 -1.691919907505991e+02 9.518399804696992e-01 -8.419225873058728e+01 
                      9.518209139117305e-01 -8.425443140918544e+01 3.854491500056496e-02 -1.691919907505991e+02 8.546319859068247e-02 1.301583257046290e+02 1.099955156030861e-01 1.053773022254763e+01 
                      3.857357441477114e-02 -1.690985746337856e+02 9.518399804696992e-01 -8.419225873058728e+01 1.099955156030861e-01 1.053773022254763e+01 8.482506839719180e-02 1.298574481307569e+02 

8.080808080808081e-01 1.318799322565630e-01 -1.227926490841907e+02 1.012069178045947e-01 -2.442562529945521e+01 9.412858866339670e-01 -1.115842061378785e+02 5.283010451581970e-02 1.588577247083019e+02 
                      1.012069178045947e-01 -2.442562529945521e+01 1.321587666775628e-01 -1.225124178429612e+02 5.278283331485299e-02 1.587496769796387e+02 9.413257403935511e-01 -1.115010102960100e+02 
                      9.412858866339670e-01 -1.115842061378785e+02 5.278283331485299e-02 1.587496769796387e+02 1.009431279473568e-01 8.108771801427615e+01 1.133862901632444e-01 -1.549769441689913e+01 
                      5.283010451581970e-02 1.588577247083019e+02 9.413257403935511e-01 -1.115010102960100e+02 1.133862901632444e-01 -1.549769441689913e+01 1.009641490843067e-01 8.124768508340850e+01 

1.010101010101010e+00 1.385521605638045e-01 -1.312584254250766e+02 7.958230163217857e-02 -5.096243509211092e+01 9.345338039066555e-01 -1.388742529280115e+02 6.355552623804321e-02 1.279754735637072e+02 
                      7.958230163217857e-02 -5.096243509211092e+01 1.392451322917956e-01 -1.310439793992724e+02 6.349141889570065e-02 1.278577364872678e+02 9.345735243659717e-01 -1.387717544031618e+02 
                      9.345338039066555e-01 -1.388742529280115e+02 6.349141889570065e-02 1.278577364872678e+02 1.072491827437635e-01 3.309484198319029e+01 9.530016269630526e-02 -4.310767656956484e+01 
                      6.355552623804321e-02 1.279754735637072e+02 9.345735243659717e-01 -1.387717544031618e+02 9.530016269630526e-02 -4.310767656956484e+01 1.081770401184614e-01 3.350345939020684e+01 

1.212121212121212e+00 1.286733825776823e-01 -1.356210994517726e+02 4.208984702493151e-02 -7.448414627185848e+01 9.303999693901939e-01 -1.663161737530508e+02 7.206543424202295e-02 1.000830676141843e+02 
                      4.208984702493151e-02 -7.448414627185848e+01 1.296110190800723e-01 -1.356331403656152e+02 7.199915617584492e-02 9.996300323013593e+01 9.303990579847038e-01 -1.661920329585037e+02 
                      9.303999693901939e-01 -1.663161737530508e+02 7.199915617584492e-02 9.996300323013593e+01 1.012982455056615e-01 -1.665832731305149e+01 5.607178668506432e-02 -7.503798785684829e+01 
                      7.206543424202295e-02 1.000830676141843e+02 9.303990579847038e-01 -1.661920329585037e+02 5.607178668506432e-02 -7.503798785684829e+01 1.028472427555797e-01 -1.605864027007413e+01 

1.414141414141414e+00 1.095140754302413e-01 -1.292801770472161e+02 9.172320788706886e-03 1.276120765185324e+01 9.257810365806012e-01 1.659585967378434e+02 8.214500180721118e-02 7.441395452962784e+01 
                      9.172320788706886e-03 1.276120765185324e+01 1.100318702914561e-01 -1.296915999342622e+02 8.210776604108197e-02 7.428768703020667e+01 9.257672694557192e-01 1.661097364783166e+02 
                      9.257810365806012e-01 1.659585967378434e+02 8.210776604108197e-02 7.428768703020667e+01 8.309543047267348e-02 -7.531294831690991e+01 1.028511689224076e-02 1.687652954797397e+02 
                      8.214500180721118e-02 7.441395452962784e+01 9.257672694557192e-01 1.661097364783166e+02 1.028511689224076e-02 1.687652954797397e+02 8.445888372946034e-02 -7.436671560246803e+01 

1.616161616161616e+00 1.126765212583010e-01 -1.077246981808987e+02 5.171098291211941e-02 2.878934401254256e+01 9.162190964954134e-01 1.379890450717751e+02 9.627925523712408e-02 4.792039016231885e+01 
                      5.171098291211941e-02 2.878934401254256e+01 1.120138082141184e-01 -1.080942055043729e+02 9.630182320584334e-02 4.776621586920868e+01 9.163079762186958e-01 1.381688814331387e+02 
                      9.162190964954134e-01 1.379890450717751e+02 9.630182320584334e-02 4.776621586920868e+01 7.411645520162791e-02 -1.566258846249580e+02 6.531609406763782e-02 6.577075385006260e+01 
                      9.627925523712408e-02 4.792039016231885e+01 9.163079762186958e-01 1.381688814331387e+02 6.531609406763782e-02 6.577075385006260e+01 7.418085587386264e-02 -1.556115065013994e+02 

1.818181818181818e+00 1.641505962345580e-01 -9.462479786495122e+01 8.530272745457097e-02 2.685180764640255e+00 8.987740307332363e-01 1.100584173165777e+02 1.120218659302910e-01 1.855306599944709e+01 
                      8.530272745457097e-02 2.685180764640255e+00 1.630600069642771e-01 -9.449857514422220e+01 1.121100297115775e-01 1.835008763733834e+01 8.990552864405423e-01 1.102595704390230e+02 
                      8.987740307332363e-01 1.100584173165777e+02 1.121100297115775e-01 1.835008763733834e+01 1.141685072348302e-01 1.249569765249059e+02 1.199614052947034e-01 3.121610813966602e+01 
                      1.120218659302910e-01 1.855306599944709e+01 8.990552864405423e-01 1.102595704390230e+02 1.199614052947034e-01 3.121610813966602e+01 1.137266023615860e-01 1.249876336940781e+02 

2.020202020202020e+00 2.369194341312468e-01 -9.758327118948333e+01 9.995468576774560e-02 -2.531938172485636e+01 8.754116511197471e-01 8.256448203101179e+01 1.239702966083378e-01 -1.286292489835934e+01 
                      9.995468576774560e-02 -2.531938172485636e+01 2.362136142570289e-01 -9.728150128591818e+01 1.240996231195317e-01 -1.312348786658831e+01 8.757927760195086e-01 8.277457200626179e+01 
                      8.754116511197471e-01 8.256448203101179e+01 1.240996231195317e-01 -1.312348786658831e+01 1.827492508497112e-01 7.176934020276782e+01 1.535443704980665e-01 -4.292314038334347e-01 
                      1.239702966083378e-01 -1.286292489835934e+01 8.757927760195086e-01 8.277457200626179e+01 1.535443704980665e-01 -4.292314038334347e-01 1.827877966694535e-01 7.150561100149693e+01 

2.222222222222222e+00 3.013402633559332e-01 -1.075969500197654e+02 9.433265682925347e-02 -5.361002689170321e+01 8.527182719593153e-01 5.572805800959666e+01 1.284465781733224e-01 -4.404743944066939e+01 
                      9.433265682925347e-02 -5.361002689170321e+01 3.013415582151386e-01 -1.072586148222278e+02 1.285668600681971e-01 -4.436519114743737e+01 8.529142496937114e-01 5.594332050449785e+01 
                      8.527182719593153e-01 5.572805800959666e+01 1.285668600681971e-01 -4.436519114743737e+01 2.479451293801569e-01 3.019851107807303e+01 1.594122840345061e-01 -3.132428532003356e+01 
                      1.284465781733224e-01 -4.404743944066939e+01 8.529142496937114e-01 5.594332050449785e+01 1.594122840345061e-01 -3.132428532003356e+01 2.484487902883591e-01 2.999238133553058e+01 

2.424242424242424e+00 3.395488718908885e-01 -1.200208033441836e+02 7.118016915033944e-02 -8.335492374861717e+01 8.379415535722498e-01 2.939525979383467e+01 1.261935433608679e-01 -7.239832907338655e+01 
                      7.118016915033944e-02 -8.335492374861717e+01 3.405218979260419e-01 -1.196953868901946e+02 1.262364220742517e-01 -7.275880002798073e+01 8.376805044536773e-01 2.963272431873702e+01 
                      8.379415535722498e-01 2.939525979383467e+01 1.262364220742517e-01 -7.275880002798073e+01 2.905494631501956e-01 -6.379192558350676e+00 1.377898147994021e-01 -6.307458883979705e+01 
                      1.261935433608679e-01 -7.239832907338655e+01 8.376805044536773e-01 2.963272431873702e+01 1.377898147994021e-01 -6.307458883979705e+01 2.915244958284333e-01 -6.363348293531825e+00 

2.626262626262626e+00 3.393532214830641e-01 -1.327116631395711e+02 3.463273226997018e-02 -1.226618314951604e+02 8.350105819681753e-01 3.046321422152863e+00 1.240745529734925e-01 -9.568074698519204e+01 
                      3.463273226997018e-02 -1.226618314951604e+02 3.415391552505223e-01 -1.324786309799798e+02 1.239963000516996e-01 -9.603195021450640e+01 8.343454980651513e-01 3.339792716200237e+00 
                      8.350105819681753e-01 3.046321422152863e+00 1.239963000516996e-01 -9.603195021450640e+01 2.959948377005568e-01 -4.101391273450005e+01 9.248966249610491e-02 -1.004292939783278e+02 
                      1.240745529734925e-01 -9.568074698519204e+01 8.343454980651513e-01 3.339792716200237e+00 9.248966249610491e-02 -1.004292939783278e+02 2.978155457074982e-01 -4.065105852399427e+01 

2.828282828282828e+00 2.927931364364104e-01 -1.428692067169212e+02 2.141845772830915e-02 8.859710953191437e+01 8.413104556684735e-01 -2.402538988520356e+01 1.347867970182441e-01 -1.157455037099136e+02 
                      2.141845772830915e-02 8.859710953191437e+01 2.959119414959721e-01 -1.429609777360005e+02 1.346967848568877e-01 -1.160147296017725e+02 8.408094214496502e-01 -2.365354936954591e+01 
                      8.413104556684735e-01 -2.402538988520356e+01 1.346967848568877e-01 -1.160147296017725e+02 2.506997104456389e-01 -7.605435393200845e+01 3.969225503830506e-02 -1.761572617895325e+02 
                      1.347867970182441e-01 -1.157455037099136e+02 8.408094214496502e-01 -2.365354936954591e+01 3.969225503830506e-02 -1.761572617895325e+02 2.537983845237337e-01 -7.519814049247816e+01 

3.030303030303030e+00 2.132434773662966e-01 -1.412568474914521e+02 7.019332553080608e-02 2.903621008544432e+01 8.452641182733794e-01 -5.227090977186130e+01 1.631815135321693e-01 -1.405885303647373e+02 
                      7.019332553080608e-02 2.903621008544432e+01 2.148640309354129e-01 -1.422570049880855e+02 1.633572869456444e-01 -1.408000884393814e+02 8.456963490162624e-01 -5.184677429457373e+01 
                      8.452641182733794e-01 -5.227090977186130e+01 1.633572869456444e-01 -1.408000884393814e+02 1.471058471328245e-01 -1.154604184932594e+02 7.956412799796848e-02 6.712154750172965e+01 
                      1.631815135321693e-01 -1.405885303647373e+02 8.456963490162624e-01 -5.184677429457373e+01 7.956412799796848e-02 6.712154750172965e+01 1.508966508079951e-01 -1.135625069643545e+02 

3.232323232323232e+00 1.926764990249310e-01 -1.139712361286242e+02 1.105810009717988e-01 -9.531201132458113e+00 8.319940207764748e-01 -8.127065082210174e+01 1.928022754477841e-01 -1.732849537272758e+02 
                      1.105810009717988e-01 -9.531201132458113e+00 1.880736890398655e-01 -1.147799419361906e+02 1.934523057964418e-01 -1.735167958055500e+02 8.333449621309942e-01 -8.086332941461012e+01 
                      8.319940207764748e-01 -8.127065082210174e+01 1.934523057964418e-01 -1.735167958055500e+02 3.512781896623599e-02 1.172754605603385e+02 1.560062148440469e-01 1.802095728400340e+01 
                      1.928022754477841e-01 -1.732849537272758e+02 8.333449621309942e-01 -8.086332941461012e+01 1.560062148440469e-01 1.802095728400340e+01 3.055965943724193e-02 1.228680704908846e+02 

3.434343434343435e+00 2.951128550442962e-01 -1.000574262024061e+02 1.271019349101179e-01 -4.706688559657871e+01 7.945848587644828e-01 -1.100451069402374e+02 2.050602937862870e-01 1.501663353593059e+02 
                      1.271019349101179e-01 -4.706688559657871e+01 2.899446684022388e-01 -9.961622009786942e+01 2.060836507376093e-01 1.497760564792511e+02 7.973882782865289e-01 -1.095598612267770e+02 
                      7.945848587644828e-01 -1.100451069402374e+02 2.060836507376093e-01 1.497760564792511e+02 1.787607481048666e-01 2.203102604993646e+01 2.164684494724823e-01 -2.362493631340053e+01 
                      2.050602937862870e-01 1.501663353593059e+02 7.973882782865289e-01 -1.095598612267770e+02 2.164684494724823e-01 -2.362493631340053e+01 1.758103815218621e-01 2.149422621695981e+01 

3.636363636363636e+00 4.123141072665926e-01 -1.064984092871856e+02 1.142430987399825e-01 -8.109099899578909e+01 7.551033865108671e-01 -1.370195346314850e+02 1.899089852466762e-01 1.158135271717862e+02 
                      1.142430987399825e-01 -8.109099899578909e+01 4.092028331981519e-01 -1.055566069419704e+02 1.911949827938016e-01 1.153721127449172e+02 7.562865965578072e-01 -1.367301216183228e+02 
                      7.551033865108671e-01 -1.370195346314850e+02 1.911949827938016e-01 1.153721127449172e+02 3.236274594060256e-01 -1.094308780889579e+01 2.200309819347983e-01 -5.985476749195283e+01 
                      1.899089852466762e-01 1.158135271717862e+02 7.562865965578072e-01 -1.367301216183228e+02 2.200309819347983e-01 -5.985476749195283e+01 3.245143871989161e-01 -1.163394232820995e+01 

3.838383838383838e+00 4.971204143929753e-01 -1.182015743855634e+02 8.589876233099039e-02 -1.161222578078048e+02 7.192211746724222e-01 -1.627882497766871e+02 1.646939296637694e-01 8.734393743917411e+01 
                      8.589876233099039e-02 -1.161222578078048e+02 4.970102464755586e-01 -1.173300869584741e+02 1.659658950881834e-01 8.668771362380053e+01 7.191736001899266e-01 -1.624669790668071e+02 
                      7.192211746724222e-01 -1.627882497766871e+02 1.659658950881834e-01 8.668771362380053e+01 4.294398927793424e-01 -3.995588582737859e+01 1.959492909678407e-01 -9.585776871883880e+01 
                      1.646939296637694e-01 8.734393743917411e+01 7.191736001899266e-01 -1.624669790668071e+02 1.959492909678407e-01 -9.585776871883880e+01 4.314056531898424e-01 -4.059672441499669e+01 

4.040404040404041e+00 5.338024622567076e-01 -1.314420755470263e+02 5.417949010537517e-02 -1.590665856865720e+02 7.002635169411044e-01 1.725376768553469e+02 1.455717795873603e-01 6.727195690024917e+01 
                      5.417949010537517e-02 -1.590665856865720e+02 5.357748979592255e-01 -1.306718898409667e+02 1.463487276758989e-01 6.635864542724219e+01 6.995380040051872e-01 1.729254508820803e+02 
                      7.002635169411044e-01 1.725376768553469e+02 1.463487276758989e-01 6.635864542724219e+01 4.812392163491885e-01 -6.718038500065786e+01 1.483759054741719e-01 -1.330001126481544e+02 
                      1.455717795873603e-01 6.727195690024917e+01 6.995380040051872e-01 1.729254508820803e+02 1.483759054741719e-01 -1.330001126481544e+02 4.834086054613456e-01 -6.758956108514519e+01 

4.242424242424242e+00 5.107410484810604e-01 -1.449865440062700e+02 4.290601591212419e-02 1.259788052408413e+02 7.071294477509078e-01 1.477625677946709e+02 1.485177033276247e-01 5.271767665893645e+01 
                      4.290601591212419e-02 1.259788052408413e+02 5.146845482623630e-01 -1.442432099107384e+02 1.484688271964773e-01 5.178353613111881e+01 7.055036089753499e-01 1.482243330440126e+02 
                      7.071294477509078e-01 1.477625677946709e+02 1.484688271964773e-01 5.178353613111881e+01 4.632370829666650e-01 -9.368908764771810e+01 9.831721821639888e-02 -1.789851111135347e+02 
                      1.485177033276247e-01 5.271767665893645e+01 7.055036089753499e-01 1.482243330440126e+02 9.831721821639888e-02 -1.789851111135347e+02 4.673886761171190e-01 -9.370881744814272e+01 

4.444444444444445e+00 4.126869033166975e-01 -1.561631335731133e+02 8.249303980475817e-02 5.389265773434663e+01 7.343325808961846e-01 1.207966909538117e+02 1.840721304524043e-01 3.490371013754195e+01 
                      8.249303980475817e-02 5.389265773434663e+01 4.198552641724774e-01 -1.555755404282456e+02 1.836404724284062e-01 3.424086778578143e+01 7.315209007714809e-01 1.214547112415404e+02 
                      7.343325808961846e-01 1.207966909538117e+02 1.836404724284062e-01 3.424086778578143e+01 3.595022147883855e-01 -1.186705485256721e+02 8.479959999193933e-02 1.021986777403943e+02 
                      1.840721304524043e-01 3.490371013754195e+01 7.315209007714809e-01 1.214547112415404e+02 8.479959999193933e-02 1.021986777403943e+02 3.679914805333384e-01 -1.185246997949011e+02 

4.646464646464646e+00 2.706011324575955e-01 -1.504228791881814e+02 1.426141425031647e-01 -1.969875685547208e-01 7.465869713001263e-01 9.080822465192081e+01 2.456082556187315e-01 3.948614651115612e+00 
                      1.426141425031647e-01 -1.969875685547208e-01 2.776343743447895e-01 -1.513217029802901e+02 2.457031179157526e-01 3.447452141618163e+00 7.454175184175220e-01 9.174766982847298e+01 
                      7.465869713001263e-01 9.080822465192081e+01 2.457031179157526e-01 3.447452141618163e+00 1.818738624017855e-01 -1.307611297407440e+02 1.530073686365661e-01 2.148724112605350e+01 
                      2.456082556187315e-01 3.948614651115612e+00 7.454175184175220e-01 9.174766982847298e+01 1.530073686365661e-01 2.148724112605350e+01 1.913760587197277e-01 -1.318401930812887e+02 

4.848484848484849e+00 2.814187649938891e-01 -1.176690990183008e+02 1.734906552738493e-01 -4.911374124545983e+01 7.170392064359385e-01 6.032252769110968e+01 2.796933034995587e-01 -3.752436143340584e+01 
                      1.734906552738493e-01 -4.911374124545983e+01 2.760795712074943e-01 -1.189421759845026e+02 2.805963931726534e-01 -3.800018002974267e+01 7.193357529868495e-01 6.130904061719036e+01 
                      7.170392064359385e-01 6.032252769110968e+01 2.805963931726534e-01 -3.800018002974267e+01 1.356059105040779e-01 -6.602254920626328e+01 2.317350953768001e-01 -3.853289679040154e+01 
                      2.796933034995587e-01 -3.752436143340584e+01 7.193357529868495e-01 6.130904061719036e+01 2.317350953768001e-01 -3.853289679040154e+01 1.312156282104224e-01 -6.926579572565974e+01 

5.050505050505051e+00 4.301028351730980e-01 -1.118741820944604e+02 1.632706690959650e-01 -9.455878502544192e+01 6.677585012181210e-01 3.199051238533649e+01 2.536855494699470e-01 -7.882991879511617e+01 
                      1.632706690959650e-01 -9.455878502544192e+01 4.211406570567561e-01 -1.113388699399850e+02 2.555632945321650e-01 -7.931529207638549e+01 6.720873022517384e-01 3.281957582333015e+01 
                      6.677585012181210e-01 3.199051238533649e+01 2.555632945321650e-01 -7.931529207638549e+01 3.087748787525493e-01 -6.024234393609376e+01 2.567976695036139e-01 -8.794733028444828e+01 
                      2.536855494699470e-01 -7.882991879511617e+01 6.720873022517384e-01 3.281957582333015e+01 2.567976695036139e-01 -8.794733028444828e+01 3.052927064359882e-01 -6.031463285017691e+01 

5.252525252525253e+00 5.652666492344708e-01 -1.196435238948299e+02 1.217996592443977e-01 -1.332422531511627e+02 6.170195739463656e-01 4.967316161037012e+00 2.052247974259568e-01 -1.108146901862417e+02 
                      1.217996592443977e-01 -1.332422531511627e+02 5.613677158088208e-01 -1.187722334281268e+02 2.074753107951712e-01 -1.115685177655044e+02 6.189137717604060e-01 5.595946617833446e+00 
                      6.170195739463656e-01 4.967316161037012e+00 2.074753107951712e-01 -1.115685177655044e+02 4.855283737765110e-01 -7.800908305335996e+01 2.375744759471391e-01 -1.287224474590813e+02 
                      2.052247974259568e-01 -1.108146901862417e+02 6.189137717604060e-01 5.595946617833446e+00 2.375744759471391e-01 -1.287224474590813e+02 4.840169947843662e-01 -7.835780815977070e+01 

5.454545454545454e+00 6.480697638727516e-01 -1.314221234210970e+02 9.111850265909595e-02 -1.707153807757808e+02 5.733001579684600e-01 -1.930966977552226e+01 1.604347656450909e-01 -1.341655465508182e+02 
                      9.111850265909595e-02 -1.707153807757808e+02 6.467358781277738e-01 -1.305128195897622e+02 1.624068247283743e-01 -1.352976463539030e+02 5.733028718964266e-01 -1.854370778506165e+01 
                      5.733001579684600e-01 -1.930966977552226e+01 1.624068247283743e-01 -1.352976463539030e+02 5.861312244330447e-01 -9.977762192120504e+01 2.022842702772369e-01 -1.651394691453023e+02 
                      1.604347656450909e-01 -1.341655465508182e+02 5.733028718964266e-01 -1.854370778506165e+01 2.022842702772369e-01 -1.651394691453023e+02 5.853054295265570e-01 -9.979440824078668e+01 

5.656565656565657e+00 6.699039695020983e-01 -1.440183843451974e+02 7.604886562897227e-02 1.416741414631141e+02 5.569387409443283e-01 -4.205294678396650e+01 1.380857281703881e-01 -1.449525184373579e+02 
                      7.604886562897227e-02 1.416741414631141e+02 6.717503216923341e-01 -1.429634103568581e+02 1.389323769380026e-01 -1.466164971972969e+02 5.568167304558219e-01 -4.113999494591038e+01 
                      5.569387409443283e-01 -4.205294678396650e+01 1.389323769380026e-01 -1.466164971972969e+02 6.171827046375833e-01 -1.206619438439847e+02 1.656674786797340e-01 1.591319573716497e+02 
                      1.380857281703881e-01 -1.449525184373579e+02 5.568167304558219e-01 -4.113999494591038e+01 1.656674786797340e-01 1.591319573716497e+02 6.200162088753390e-01 -1.204592951253441e+02 

5.858585858585859e+00 6.193802782882691e-01 -1.567046427901501e+02 9.075812904924919e-02 8.604213660821274e+01 5.737305923892932e-01 -6.556586652333407e+01 1.607127185244601e-01 -1.530767607537906e+02 
                      9.075812904924919e-02 8.604213660821274e+01 6.271110578229752e-01 -1.554652792292632e+02 1.595255246262900e-01 -1.546209027439279e+02 5.727100142233933e-01 -6.457133059165433e+01 
                      5.737305923892932e-01 -6.556586652333407e+01 1.595255246262900e-01 -1.546209027439279e+02 5.758781965017037e-01 -1.410968494550075e+02 1.389169158019732e-01 1.167341937089819e+02 
                      1.607127185244601e-01 -1.530767607537906e+02 5.727100142233933e-01 -6.457133059165433e+01 1.389169158019732e-01 1.167341937089819e+02 5.825321203842527e-01 -1.408425631787034e+02 

6.060606060606061e+00 4.769333559044589e-01 -1.653672270366363e+02 1.461121042900691e-01 3.325996984585839e+01 6.109176217724341e-01 -9.334225463462238e+01 2.298160815812227e-01 -1.739575447750634e+02 
                      1.461121042900691e-01 3.325996984585839e+01 4.947307897352015e-01 -1.644360675506513e+02 2.274413252412328e-01 -1.748383656901050e+02 6.076628012499367e-01 -9.185114932789074e+01 
                      6.109176217724341e-01 -9.334225463462238e+01 2.274413252412328e-01 -1.748383656901050e+02 4.430755547784127e-01 -1.580398571492179e+02 1.375423026037191e-01 5.209995221609671e+01 
                      2.298160815812227e-01 -1.739575447750634e+02 6.076628012499367e-01 -9.185114932789074e+01 1.375423026037191e-01 5.209995221609671e+01 4.546456831970408e-01 -1.579351326940575e+02 

6.262626262626263e+00 3.402602592286183e-01 -1.510683636063848e+02 2.140894824263133e-01 -2.282467981922860e+01 6.013714075932229e-01 -1.250981419845172e+02 3.181398834771241e-01 1.469193414637062e+02 
                      2.140894824263133e-01 -2.282467981922860e+01 3.551945986935064e-01 -1.537778065762267e+02 3.167233739928368e-01 1.463241743325072e+02 6.055082140624345e-01 -1.228050137163459e+02 
                      6.013714075932229e-01 -1.250981419845172e+02 3.167233739928368e-01 1.463241743325072e+02 3.047268738269284e-01 -1.539029412663115e+02 1.825436602145411e-01 -3.331009985437696e+01 
                      3.181398834771241e-01 1.469193414637062e+02 6.055082140624345e-01 -1.228050137163459e+02 1.825436602145411e-01 -3.331009985437696e+01 3.111986021684083e-01 -1.567553811414222e+02 

6.464646464646465e+00 4.038136984680003e-01 -1.302417461991531e+02 2.296702400503401e-01 -7.615540956545767e+01 5.573872472659169e-01 -1.537137867513916e+02 3.339908976369437e-01 9.993703695998275e+01 
                      2.296702400503401e-01 -7.615540956545767e+01 3.895428832012798e-01 -1.329485870867762e+02 3.332025874786114e-01 9.936281946095171e+01 5.740271459227843e-01 -1.511730130165756e+02 
                      5.573872472659169e-01 -1.537137867513916e+02 3.332025874786114e-01 9.936281946095171e+01 3.006608344429972e-01 -1.393293988849650e+02 2.471078464569579e-01 -1.042090878104909e+02 
                      3.339908976369437e-01 9.993703695998275e+01 5.740271459227843e-01 -1.511730130165756e+02 2.471078464569579e-01 -1.042090878104909e+02 2.838090164503246e-01 -1.397410896891110e+02 

6.666666666666666e+00 5.432701244047482e-01 -1.273933276597128e+02 1.938204542200593e-01 -1.237510305509280e+02 5.204715795917644e-01 1.781889603888773e+02 2.837214404185622e-01 5.715965157668813e+01 
                      1.938204542200593e-01 -1.237510305509280e+02 5.191861499203151e-01 -1.271526907974998e+02 2.844197359050535e-01 5.657364524748202e+01 5.458378620803810e-01 -1.797858196167526e+02 
                      5.204715795917644e-01 1.781889603888773e+02 2.844197359050535e-01 5.657364524748202e+01 3.964548715447485e-01 -1.323221440601109e+02 2.909446687360663e-01 -1.604882881452116e+02 
                      2.837214404185622e-01 5.715965157668813e+01 5.458378620803810e-01 -1.797858196167526e+02 2.909446687360663e-01 -1.604882881452116e+02 3.842123164718553e-01 -1.286933216375887e+02 

6.868686868686869e+00 6.764388306316804e-01 -1.361862894077163e+02 1.430660166495140e-01 -1.679192986768330e+02 4.418514909501805e-01 1.551478893061761e+02 2.010845495634358e-01 1.736722530784093e+01 
                      1.430660166495140e-01 -1.679192986768330e+02 6.506378963541685e-01 -1.338333826045947e+02 2.004774580889330e-01 1.743122896633659e+01 4.916681696174622e-01 1.549056675664208e+02 
                      4.418514909501805e-01 1.551478893061761e+02 2.004774580889330e-01 1.743122896633659e+01 4.380776381011042e-01 -1.477904900424340e+02 2.710116311891218e-01 1.431763479909390e+02 
                      2.010845495634358e-01 1.736722530784093e+01 4.916681696174622e-01 1.549056675664208e+02 2.710116311891218e-01 1.431763479909390e+02 4.928361529266060e-01 -1.376802987940016e+02 

7.070707070707071e+00 7.178950713431596e-01 -1.447659476688826e+02 9.274342642332216e-02 1.591923702028460e+02 4.736231426341049e-01 1.325828638475334e+02 1.309133997145219e-01 1.141367758163094e+01 
                      9.274342642332216e-02 1.591923702028460e+02 7.240063109659833e-01 -1.429826351760762e+02 1.345983681252581e-01 1.012381183378121e+01 4.734877390773023e-01 1.296849020103375e+02 
                      4.736231426341049e-01 1.325828638475334e+02 1.345983681252581e-01 1.012381183378121e+01 5.948319759492277e-01 -1.472148043263814e+02 1.907774852386732e-01 1.281098002340148e+02 
                      1.309133997145219e-01 1.141367758163094e+01 4.734877390773023e-01 1.296849020103375e+02 1.907774852386732e-01 1.281098002340148e+02 6.413991477181856e-01 -1.515522748459091e+02 
